41
 energy: -65.336806081862 gnorm: 0.000842285825 xtb: 6.7.1 (edcfbbe)
C            8.50762448503421        6.20298130237152        7.57533612806335
C            7.95661533460722        7.48806583178141        7.59758257337770
C            6.83419085438821        7.71317345340846        8.40609451592541
C            6.31682878555078        6.70938478461070        9.19788612541888
C            6.88950329100569        5.44674016388109        9.18170377982875
C            7.97681950655072        5.19776814581300        8.35942429217657
C            8.45231673838160        8.59432422377062        6.81082889740687
C            9.72265761339145        8.79865092895662        6.36419584338909
C           10.75184844939047        7.89487464179644        6.73382163861215
N           11.62597753468513        7.21851960929501        7.04595667877419
C           10.17586239047215        9.92519417474953        5.56065083770740
C            9.42408561678483       11.10747155807512        5.30802572208170
C            9.97587145999613       12.10278144630017        4.53984749258194
C           11.27188033645244       12.03520240454441        3.97024122945386
C           12.02256734072377       10.84621394502966        4.23029031950013
C           11.45984213909400        9.85116515010557        4.99856679152113
O            8.18281567227853       11.21109743249600        5.85982584914129
C            7.44468824909219       12.39664604826281        5.67248472483473
O           13.26740509862144       10.76534298215450        3.69822718816932
C           14.04675204755220        9.61723331736998        3.93880967754082
C           11.73795342767968       13.11496476346336        3.20387442030919
C           13.07160659453885       13.20049747663331        2.53805330989792
C           10.91535525038893       14.22468314919437        3.02779863055939
N           10.26049299686211       15.16109808858524        2.86167422011512
H            6.38774888855276        8.69702449126909        8.42282848145494
H            8.41305831407719        4.21077560836043        8.32662983555148
H           12.02645275973648        8.95355388201048        5.18480387580406
H            5.46168077998951        6.90753970680382        9.82765763696300
H            9.33696935721246        5.98432052687746        6.92171028670010
H           13.57864615100288        8.71931806463643        3.52509148068491
H           14.99262562525987        9.79734053150916        3.42997274843724
H           14.23140865277018        9.47082877389343        5.00696924998598
H            9.41631820837697       13.00268015492286        4.34276250956465
H            7.21393005316376       12.56524194026488        4.61652823836331
H            7.97077085025517       13.26702106618932        6.07476297327533
H            6.51713518791894       12.24930986593723        6.22416222641136
H            7.71991567251813        9.35365018987743        6.58915607095319
H           13.20706175680804       12.37105591367828        1.84419597056615
H           13.16136557796041       14.13958483196099        1.99472562972403
H           13.87145343210212       13.13789723657684        3.27622742793957
H            6.48273051876750        4.65907419259088        9.79783747125794
