54
 energy: -100.992862635953 gnorm: 0.000387941156 xtb: 6.7.1 (edcfbbe)
C          107.93636516727940       69.06003864305544        5.02218825350092
C          107.43591766309609       70.27008794744950        5.41211832347098
S          107.90139941287995       71.51234945285013        4.28058338324573
C          108.77043751546148       70.37203325291554        3.30499997403606
C          108.69598564129235       69.12277845657013        3.83697160120417
C          106.57773606696708       70.55197401513675        6.54587955546714
C          105.55089221177724       69.67773928999831        6.89062411315751
C          104.67132878151480       69.89265220640988        7.97915274642047
C          104.81319561172701       71.03820836382934        8.78605618456816
C          105.83502189972867       71.91662553038140        8.43361440471724
C          106.71432463059496       71.69986750627636        7.34705881088498
S          105.14020289161317       68.22420323806853        6.01594954784659
C          103.78970596926339       67.93113133794579        7.08949253155667
C          103.68077796724543       68.88321483746799        8.06051825248175
S          106.24794861817391       73.37854662959288        9.29080487196537
C          107.57361163225585       73.66416692190370        8.21853711206021
C          107.70260178001631       72.72494162671101        7.26084480763760
C          103.96708392584267       71.29887785805590        9.93214757492524
S          103.52103082829522       70.02959360024606       11.04320809043972
C          102.66339733957093       71.14523642610128       12.05601913725635
C          102.72528097243682       72.40626409931942       11.55014127784233
C          103.46721029219373       72.49799913508421       10.35574382254724
C          101.98518010714763       70.67280478095881       13.29123546404028
C          102.95119168646293       66.79934118452074        6.89024607067835
C          102.97554977509907       65.85774563753289        5.88825006773681
C          101.95768310907101       64.86170266520161        6.00677401770459
C          101.16178246101899       65.04678477035402        7.10784104551891
S          101.64742750270808       66.42991135171452        7.99440097627814
C          102.03485282870430       63.93198194659220        4.93139121591802
C          103.04294379600786       64.19848844541748        4.05216099888020
S          103.97760379068198       65.61712917675641        4.48876151970916
F          101.18678085328888       62.90840402265952        4.82080964048905
C          103.44569410549005       63.49150644884828        2.83183862681093
O          102.64603209515936       62.45224802217387        2.57418095557255
C          102.92755173513439       61.67995853677445        1.41580857608529
C          109.47187853554502       70.81593644525277        2.07224755358538
O          104.38546682247815       63.82825644655191        2.15419509088199
H          108.18095446230174       74.53394412419817        8.37553598182768
H          108.47784937408890       72.74342547097638        6.51791726737650
H          103.59592374003010       73.41551362073564        9.81091186970283
H          102.25462767688903       73.25223088757106       12.01893572026114
H          102.89795104087713       68.86370463899820        8.79658710862313
H          107.79644882322076       68.15460856808792        5.58425186453460
H          109.16837139037962       68.26442610512616        3.39356795303775
H          102.70445453044246       70.22927101843109       13.97957333144251
H          101.49442353166418       71.50717107761309       13.78656458829222
H          101.23907207509379       69.91408177184429       13.05593086292521
H          102.01658770041836       61.62566503086246        0.82050719984394
H          103.22440514259978       60.67890421335368        1.73056191496552
H          103.73099938149556       62.14694115401026        0.84292706274894
H          110.23545315050825       71.55754543715476        2.30788614226525
H          108.77081053092226       71.27097403753196        1.37272542084621
H          109.94613191400109       69.96433979378969        1.58998846604603
H          100.33126251186120       64.45639979304100        7.43709604814244
